128
Time=100.00000000 pbc="T T T" Lattice="13.37335811 0.00000000 0.00000000 0.00000000 23.91208685 0.00000000 0.00000000 0.00000000 12.54844740" energy=-398.61575365 virial="9.89359708 1.08687000 1.67883915 1.08687000 2.99648884 -5.40541594 1.67883915 -5.40541594 0.84901820" stress="0.00309978 0.00029608 0.00045060 0.00029608 0.00148643 -0.00128949 0.00045060 -0.00128949 0.00077940" Properties=species:S:1:pos:R:3:vel:R:3:forces:R:3
K 0.22563883 9.12837844 1.01126765 0.00123996 0.00209799 0.00050211 -0.14987045 0.06119560 0.03257665
K 6.50489119 9.34488708 1.12929958 0.00049208 0.00091790 -0.00016575 0.23576439 -0.13949344 -0.16810811
K 13.12976686 21.12961157 1.26838535 -0.00178541 -0.00057738 0.00214511 0.07492483 -0.02105247 -0.09842469
K 6.52715160 21.13658135 1.18926379 -0.00001433 -0.00250005 0.00157310 0.11513286 -0.13577353 -0.06450794
K 0.18642970 9.19472876 7.58984207 0.00202744 -0.00225869 0.00284171 -0.07074388 -0.16238954 -0.08952118
K 6.88551465 9.25728126 7.20070731 0.00133886 0.00040809 -0.00056205 -0.07721055 0.02420911 0.02251917
K 13.08002787 21.07954856 7.26023201 -0.00159889 0.00003638 0.00050965 0.14818781 0.03211750 0.10619216
K 6.48879675 21.05655560 7.10014848 -0.00185116 0.00174461 -0.00101927 0.04365021 0.12439266 0.10230929
K 0.12707216 2.86235462 0.68897886 -0.00049513 -0.00055774 -0.00198966 -0.13261168 -0.10824772 0.24463718
K 6.83037797 2.89525615 0.90764143 0.00108132 0.00028726 0.00065055 -0.09336498 -0.07441605 0.21871575
K 13.21460829 14.76455585 1.10728605 0.00000410 -0.00017513 0.00102233 0.17081181 -0.01193643 -0.03010937
K 6.74452386 14.74897768 1.00212092 0.00002495 -0.00160411 -0.00106364 -0.05293990 0.00079537 -0.11604623
K 0.01790000 2.95564549 7.18749747 0.00186374 -0.00041870 0.00018249 0.12418785 -0.12865889 0.15890157
K 6.66333267 2.68743907 7.00719808 0.00176974 0.00247081 -0.00285470 0.14427556 0.32778743 0.11406437
K 13.14252460 14.87893119 6.93657266 0.00026957 -0.00054128 -0.00271225 0.35091804 -0.13523165 0.20628203
K 6.92088203 14.79231821 7.64251959 0.00076529 -0.00111442 0.00411917 -0.13582677 -0.10951107 -0.14019059
K 3.24680263 8.89113697 5.15862381 -0.00017412 0.00054712 -0.00083271 0.07880761 -0.09518077 0.07420936
K 10.26156838 8.89376663 5.34056992 0.00232916 -0.00224461 -0.00002389 -0.05113704 -0.16749000 -0.06425558
K 2.90943696 20.86181667 5.10548190 -0.00417333 0.00055569 -0.00111251 0.26808643 0.01311482 0.13576124
K 9.68979932 20.62528647 4.94370808 -0.00183183 -0.00222445 -0.00074563 0.30913028 0.01178635 0.32885323
K 3.26347699 8.82213602 11.50389920 0.00020479 -0.00075384 -0.00152697 0.10423703 -0.07611912 -0.13777367
K 10.28550854 8.74223870 11.34591216 0.00130558 0.00090775 -0.00072170 -0.11971772 0.10620418 0.12746341
K 3.21837794 20.71671865 11.79710920 -0.00249813 -0.00267517 0.00156299 -0.06460400 -0.09622917 -0.11472250
K 10.12930006 20.88274508 11.23712145 0.00006177 -0.00262918 -0.00014339 -0.07310824 -0.22724270 0.38345533
K 3.56705171 3.04490407 5.39831893 -0.00022982 0.00378578 0.00015768 -0.26571509 0.33259455 -0.07240964
K 10.23652174 3.34524824 5.22492222 -0.00117868 -0.00107213 0.00072894 -0.26967709 -0.24185392 0.06583094
K 3.63219508 14.97506278 5.45718102 0.00355393 -0.00052530 -0.00061305 -0.02805467 0.07871010 -0.21985169
K 9.89557717 15.06990520 5.39779563 -0.00059027 0.00480021 -0.00114457 0.00196551 0.38799108 -0.22778766
K 3.68051276 2.96873346 11.58458234 0.00260024 -0.00049496 -0.00083089 -0.17566931 0.13267671 -0.11991390
K 9.95795306 2.98976732 11.31524978 0.00079449 -0.00122614 0.00034635 0.19710448 0.01074752 0.30665886
K 3.20915497 15.15814996 11.61165929 -0.00083910 0.00132695 0.00014039 0.06185366 0.05920951 -0.08949214
K 10.16036905 15.08739884 11.75827861 -0.00042540 -0.00007261 0.00021614 -0.12712924 0.10111259 -0.24678066
K 13.12593735 0.40353865 3.65847085 0.00009361 0.00518639 0.00008267 0.32383562 -0.00413164 -0.15872824
K 6.99395899 0.20820398 3.66259732 0.00063825 0.00223165 0.00167484 -0.38123304 -0.06760555 0.05108360
K 13.17199108 12.05005986 3.56096861 0.00070068 0.00043282 -0.00058159 0.24812231 -0.07788412 -0.02453210
K 6.85513207 12.10247932 3.58227904 0.00034967 0.00166411 0.00039622 -0.16731114 -0.02529473 0.07592906
K 13.18251002 0.02148659 10.09293621 -0.00184486 0.00046845 0.00118794 0.02239064 0.00956925 -0.20465094
K 6.47778107 0.16073186 9.52939331 -0.00230999 0.00043795 -0.00195409 -0.03154955 -0.11624933 0.13624200
K 13.23443583 12.24149033 9.68493028 0.00196506 0.00488443 0.00020151 0.29382810 0.08474458 0.13291424
K 6.82665768 11.58970229 9.80385285 0.00051594 -0.00398449 0.00101169 -0.12386800 0.03072086 0.14440653
K 3.53659357 5.76835723 2.98273486 0.00039057 -0.00309756 0.00117149 -0.22000324 -0.01024759 -0.27777986
K 10.02920903 5.79015653 2.62477009 0.00011996 -0.00093196 -0.00129343 0.03377902 0.10966952 -0.02309213
K 3.20597882 17.60147289 2.64604436 -0.00238307 -0.00428814 0.00006833 -0.03993271 0.00250797 0.04744193
K 9.71414694 17.64634621 2.48537427 -0.00181435 -0.00347703 -0.00026703 0.21785648 0.00669627 0.27258034
K 3.41361398 5.72738961 9.21048502 -0.00033801 -0.00279054 0.00111589 -0.08748092 0.02763891 -0.17705646
K 9.85753616 5.60948046 8.95537150 -0.00111841 -0.00359085 -0.00131027 0.17685880 0.13345921 -0.14330875
K 3.49667645 17.68828287 8.70776286 0.00018099 -0.00240122 -0.00077268 -0.15463213 0.04951715 0.22021573
K 10.11495972 17.81432059 9.15260437 -0.00041377 -0.00143007 0.00017789 -0.15232703 -0.00053728 -0.24083353
Li 13.37017823 6.14676115 1.86579179 -0.00454711 -0.00026819 -0.00098089 -0.05496911 -0.09867234 -0.05034473
Li 6.66629443 6.29800126 1.90646655 0.00135597 -0.00126573 0.00003103 0.09349086 -0.21777250 -0.10764494
Li 13.07242309 17.93964491 1.91300852 -0.00362452 -0.00158061 -0.00277438 0.04578091 0.03421808 -0.14375628
Li 6.53708928 17.89134867 1.84372824 -0.00349470 -0.00062039 0.00035179 -0.04647454 -0.00437249 0.21634520
Li 0.01975651 5.99791701 8.20055811 0.00702284 -0.00033134 0.00050501 0.14829866 0.02202557 -0.12104479
Li 6.60007537 6.26483343 8.21878679 -0.00034668 0.00074769 0.00001514 -0.03060510 -0.21322073 -0.10408755
Li 0.28996873 17.87624432 8.19878583 0.00275187 0.00205760 -0.00198858 -0.21140822 0.06637155 -0.16477627
Li 6.58467029 18.04719199 8.25110738 -0.00057915 0.00424913 -0.00090008 0.11912901 0.07059777 -0.04017811
Li 3.17548798 0.27035028 4.39974479 -0.00639426 0.00267520 -0.00310675 -0.06050367 -0.02276252 -0.07712061
Li 10.21727753 0.01223942 4.46742706 0.00033658 -0.00106253 0.00302587 -0.07612757 -0.03655542 0.15382371
Li 3.36052500 11.91033986 4.38471065 0.00049335 -0.00089455 -0.00206149 -0.02131190 -0.02102337 -0.19790515
Li 9.96751648 12.11247363 4.39051932 0.00295367 -0.00607341 -0.00225142 0.13717065 -0.19982617 -0.10627450
Li 3.16549515 23.81503688 10.68651855 0.00020991 -0.00163813 0.00046272 0.10317499 0.00154578 -0.12588025
Li 9.59557115 23.82910497 10.73660972 -0.00571936 -0.00174289 0.00056852 0.11272322 -0.02242133 0.17810589
Li 3.30687329 12.17801942 10.50083300 0.00205396 -0.00048960 0.00262235 0.06641694 -0.13784658 0.13854957
Li 10.06707144 12.23378290 10.60575446 -0.00200843 0.00341183 0.00377214 0.04886128 -0.13266614 0.12412549
Ge 1.93450709 23.77570347 0.45166045 -0.00068454 -0.00132141 -0.00152287 0.08062644 0.14668338 0.14526667
Ge 8.51310251 23.79264231 0.68230133 -0.00083135 -0.00144398 0.00304715 -0.01037433 -0.01248567 -0.54024518
Ge 1.91536211 11.97980374 0.13779385 -0.00078951 -0.00155838 -0.00083092 0.71694298 0.04278694 0.97119749
Ge 8.80432710 11.77174225 0.30952517 0.00132015 -0.00215394 0.00395446 0.05560255 0.24123522 0.15117864
Ge 1.77773176 0.15502633 6.62022463 -0.00144775 0.00175937 0.00116182 -0.06043685 0.03739220 -0.12737526
Ge 8.81889198 23.89542183 6.57069664 0.00022623 -0.00200515 0.00040895 -0.23818073 -0.08809564 0.16604967
Ge 2.05313092 11.80254171 6.69421358 -0.00015563 -0.00008461 -0.00154470 -0.12083986 0.12716046 -0.22216169
Ge 8.90669095 12.09662174 6.77430732 0.00237974 0.00135397 0.00232657 -0.85652117 -0.11986595 -0.60630851
Ge 4.64725393 23.88105361 0.57532183 -0.00350267 0.00218638 0.00196658 0.12048613 0.16257487 -0.54471348
Ge 11.18582886 23.87088516 0.44591126 -0.00079191 0.00150470 -0.00142981 -0.02146159 -0.10257383 -0.09619454
Ge 4.67329505 12.18187333 0.18927950 -0.00154554 0.00431230 0.00128856 -0.60747318 -0.07312396 0.74478201
Ge 11.51364991 11.92762057 0.30492645 0.00318060 -0.00132606 0.00020751 -0.49212753 0.20220751 0.43761617
Ge 4.46676036 23.82896251 6.54740692 -0.00106969 -0.00164876 -0.00122937 0.13947439 0.11860020 0.28214877
Ge 11.47509471 0.04274494 6.91362379 -0.00000078 0.00313969 0.00322708 -0.28050768 0.17601881 -0.05534777
Ge 4.74005995 11.82394807 6.68541321 0.00082970 -0.00079893 -0.00059152 0.25448372 0.11016030 -0.39069825
Ge 11.51213856 11.87559752 6.55735014 0.00140230 0.00249770 -0.00097949 0.31008483 0.06010014 -0.20729590
Ge 5.19898293 6.02373496 5.95426333 -0.00088406 0.00037209 0.00226926 0.19876760 0.14524124 0.09586134
Ge 12.16982463 5.85448292 5.97401843 0.00005999 0.00132514 0.00241384 0.06397187 0.33712410 -0.54723064
Ge 5.21904889 18.06450810 5.80337816 0.00024017 -0.00138639 -0.00111768 0.28868920 -0.32395710 0.02026486
Ge 12.08215112 18.12714501 6.00728460 -0.00020051 0.00007962 -0.00018902 0.36718154 -0.11235056 -0.52558704
Ge 5.47085655 5.86006429 12.07150372 0.00119835 0.00002810 0.00009524 0.24960255 0.32816964 -0.06267991
Ge 12.02566361 5.88675234 12.01735594 0.00204179 -0.00317831 -0.00473856 -0.42475073 -0.16710767 0.41903230
Ge 5.35050438 18.05194886 12.00400581 -0.00018857 0.00106193 -0.00184401 0.11768458 -0.14191760 0.12196006
Ge 11.84342453 18.03435793 12.05208461 -0.00073055 0.00426702 -0.00303869 0.09765764 0.09627802 0.11573256
Ge 1.45639295 6.07494429 5.81562849 -0.00218392 -0.00192196 -0.00511451 -0.07568347 -0.35350356 0.12022125
Ge 7.88807136 6.21145438 5.97898378 -0.00221152 0.00259614 -0.00152526 0.49186256 0.05540586 0.26355122
Ge 1.40187592 17.57043316 5.71133079 -0.00236455 -0.00286581 -0.00549602 -0.38709665 0.32192065 -0.05793805
Ge 7.93343410 17.88880744 6.12797016 -0.00078693 0.00262670 0.00103205 -0.24794701 -0.12195315 -0.72183569
Ge 1.28853443 5.81963938 12.23848920 0.00281916 -0.00143104 0.00184403 0.69499326 0.23412809 0.23517836
Ge 8.17801140 5.68327595 12.16517571 0.00082822 -0.00374886 -0.00090061 -0.23680779 0.35062043 0.02646403
Ge 1.06818951 17.64017942 12.26030399 -0.00171621 -0.00286021 -0.00025927 0.41647243 -0.07852477 0.25245661
Ge 8.05926143 17.80774941 12.26426360 0.00104265 0.00017844 0.00149880 -0.38515219 0.01921737 -0.42809555
Ge 0.10703016 4.77620383 3.95888603 0.00502635 0.00184171 0.00109585 -0.05906991 0.08044304 0.77320397
Ge 6.73700250 4.98401541 4.17369978 0.00142077 0.00257690 -0.00003077 -0.13791546 -0.55027626 -0.35429664
Ge 12.97689732 16.60234893 4.10150348 -0.00428877 -0.00087669 0.00210922 0.09607506 0.40626921 0.26126924
Ge 6.69957217 16.45427398 4.26448958 -0.00311555 -0.00075184 -0.00060243 -0.06913608 0.43446654 0.32459047
Ge 0.14409272 4.62348197 10.37224160 -0.00096684 -0.00023017 0.00045455 -0.13660021 -0.61504258 -0.28660467
Ge 6.83139861 4.63761652 10.23155606 0.00293956 0.00080653 -0.00063177 -0.09548902 0.10903224 0.30116160
Ge 13.10500052 16.53707489 10.36815875 -0.00222115 -0.00404141 -0.00068423 0.19511545 -0.08753078 0.16509614
Ge 6.72460565 16.60970133 10.36264176 -0.00040471 0.00226720 -0.00120012 0.10661744 0.41498783 0.52888182
Ge 13.34697838 7.46649996 4.28543891 0.00050266 0.00165033 0.00052292 -0.18330555 -0.17140388 -0.10186586
Ge 6.50989762 7.61894222 4.36030848 -0.00090248 0.00360388 -0.00004687 -0.06374627 -0.01589130 -0.37789343
Ge 0.21381601 19.28554241 4.13679576 0.00383422 0.00166366 0.00021170 -0.42744276 -0.71557948 0.40692908
Ge 6.81615246 19.14797536 4.16618382 0.00304113 -0.00299102 -0.00000371 -0.04398811 -0.14082251 -0.11704064
Ge 0.12835279 7.21869303 10.48042372 0.00047416 0.00050559 -0.00052127 0.13673094 0.64756742 -0.28819843
Ge 7.05883623 7.35090744 10.53747391 0.00333915 0.00002226 -0.00044865 -0.26338632 -0.28312667 0.21633381
Ge 0.21922556 19.18317471 10.50500305 0.00073286 0.00034924 0.00361757 -0.25792528 0.25724343 -0.23237264
Ge 7.01213399 19.36014306 10.52167308 0.00307588 -0.00197041 0.00092402 -0.19016106 -0.28234637 -0.07609846
Ge 3.19002344 1.56158556 1.98894682 0.00047826 0.00067885 -0.00003389 -0.01651173 -0.15385063 0.23282376
Ge 9.94537899 1.29647395 2.20732571 -0.00071689 -0.00213832 0.00117358 0.13185072 0.23846059 0.15829346
Ge 3.16526761 13.29763673 2.14675729 0.00027819 0.00116341 -0.00128970 0.12255342 -0.56761802 -0.82509673
Ge 9.95952007 13.38711466 2.03996439 -0.00204450 0.00279065 -0.00113720 0.23265380 -0.57336061 -0.29778721
Ge 3.23183037 1.36175838 8.35013326 -0.00228410 -0.00041268 0.00138684 0.13070085 0.00977025 0.13447670
Ge 9.83489983 1.23431140 8.52641024 -0.00057651 0.00042212 0.00062561 0.09908627 0.10470674 -0.27068937
Ge 3.39046342 13.32791629 8.22225089 0.00073804 -0.00268596 0.00002063 -0.00232483 0.05881725 0.36282946
Ge 10.41204353 13.46371033 8.22656104 0.00464771 0.00237798 -0.00279769 -0.06064405 0.51328655 0.59511665
Ge 3.45676794 10.55996062 1.88441734 -0.00079454 -0.00015166 -0.00296178 -0.33813267 0.88559784 -0.28782577
Ge 10.20344188 10.66895741 2.12985048 0.00062864 -0.00071525 -0.00302070 -0.07587994 0.14326762 -0.06895891
Ge 3.30718424 22.82669444 2.39104728 -0.00005920 0.00183468 0.00291758 -0.17261153 -0.33600676 -0.29807570
Ge 9.97744065 22.48847887 2.30348638 -0.00233590 0.00125099 0.00308299 0.16725844 0.31042260 -0.39781623
Ge 3.45212603 10.61488327 8.48289468 0.00214579 0.00192359 0.00189769 -0.05253006 -0.00695175 -0.05899058
Ge 10.23144862 10.87901108 8.48152519 0.00069204 -0.00137421 0.00214267 0.05648448 -0.76359142 0.22241260
Ge 3.01025218 22.62013615 8.26127160 -0.00441995 0.00083335 -0.00014654 0.12450999 -0.27248563 0.36999927
Ge 9.93294603 22.47043982 8.37974776 -0.00277583 -0.00172172 -0.00051218 -0.04569688 0.18996826 -0.18036448